TITLE = "PROPAN_60"
VARIABLES="X0" "Y0" "Z0" "POT" "SOURCE" "VT1" "VT2" "VTT1" "VTT2" "CP" "CPN"
ZONE T="BLADE T=0" F=POINT, I=    80 J=    40
   0.2766566925993824E+00   0.1452094558067836E+00   0.1444332803637716E+00   0.1695158022124966E-01  -0.2133316104670454E-02   0.1100351619732918E+00  -0.2673125659107593E-01  -0.1699966815326095E+00  -0.2674637835254432E-01   0.6223751595712300E+00   0.4817170743760630E+00
   0.2727045943279002E+00   0.1481242916767682E+00   0.1414335871918461E+00   0.1753771734767436E-01  -0.1606146372786926E-02   0.9367594803619934E-01  -0.2507379146851468E-01  -0.1863549641388140E+00  -0.2507230871261718E-01   0.5491348858662688E+00   0.4250157431104642E+00
   0.2676581037104387E+00   0.1517593789489364E+00   0.1375145668140790E+00   0.1814955644553973E-01  -0.1787412510879601E-02   0.7869933845348175E-01  -0.2204741371682465E-01  -0.2013249390315686E+00  -0.2202569359265810E-01   0.4769377632485163E+00   0.3691225042730551E+00
   0.2615256025058074E+00   0.1560106946050228E+00   0.1326585779491507E+00   0.1880144051953364E-01  -0.3273108139957683E-02   0.6939874735299902E-01  -0.2004014635310708E-01  -0.2106057881786820E+00  -0.1995019822425233E-01   0.4292699001100967E+00   0.3322153533178629E+00
   0.2543002134756127E+00   0.1607369073947830E+00   0.1268763781817098E+00   0.1947634411175044E-01  -0.6700097394049208E-02   0.6189105810047259E-01  -0.1937318355364931E-01  -0.2180457362763010E+00  -0.1906545062538080E-01   0.3890105591399669E+00   0.3010442558827383E+00
   0.2459830226381219E+00   0.1657898692641613E+00   0.1201825551262447E+00   0.2016649322395110E-01  -0.1016933534195028E-01   0.5587138140542997E-01  -0.1959323917159050E-01  -0.2239533555721613E+00  -0.1891898946490067E-01   0.3557483802909528E+00   0.2752901099398826E+00
   0.2365988751825891E+00   0.1710336749384114E+00   0.1125772677757253E+00   0.2086486773988049E-01  -0.1340073931849882E-01   0.5070324920920792E-01  -0.2042531843653788E-01  -0.2289765604222640E+00  -0.1923806772655581E-01   0.3265412480768501E+00   0.2526758561342656E+00
   0.2261739673163505E+00   0.1763232793376417E+00   0.1040788009338517E+00   0.2156091349542735E-01  -0.1701876482310386E-01   0.4616991645614205E-01  -0.2182783409038863E-01  -0.2333020737273905E+00  -0.1990687125854724E-01   0.3006684373263869E+00   0.2326441497747681E+00
   0.2147347354013497E+00   0.1815080610323355E+00   0.9472818466975404E-01   0.2225034108131640E-01  -0.2077083114411548E-01   0.4243073486924463E-01  -0.2341816386950870E-01  -0.2367726159352501E+00  -0.2053844601674243E-01   0.2794992886126200E+00   0.2162542036374991E+00
   0.2023229456980375E+00   0.1864489429903521E+00   0.8456851319316451E-01   0.2293397197258343E-01  -0.2418114435304017E-01   0.3939294300332672E-01  -0.2519431580210304E-01  -0.2395156565269133E+00  -0.2120266914674661E-01   0.2624466091925239E+00   0.2030509735192450E+00
   0.1889962254003510E+00   0.1910191792381502E+00   0.7364295147245702E-01   0.2361120524365079E-01  -0.2712798411707707E-01   0.3671382484830255E-01  -0.2698959666568649E-01  -0.2418976432884123E+00  -0.2179733799717288E-01   0.2474592058348467E+00   0.1914470674351302E+00
   0.1748313157721908E+00   0.1951044016254321E+00   0.6198722141113409E-01   0.2427626613797211E-01  -0.2909860863228831E-01   0.3352022476609585E-01  -0.2890680269127679E-01  -0.2448633765820046E+00  -0.2261309636993864E-01   0.2285465997994776E+00   0.1768074878378157E+00
   0.1598817795803906E+00   0.1985840690583796E+00   0.4969813731333256E-01   0.2489722208999984E-01  -0.3226772949527566E-01   0.2961137199614240E-01  -0.3109596787028985E-01  -0.2483805498884117E+00  -0.2332110789782558E-01   0.2059728524164346E+00   0.1593387604706375E+00
   0.1441741423476063E+00   0.2013431944433741E+00   0.3694110516451082E-01   0.2546047724857610E-01  -0.3612393348473941E-01   0.2563378545204443E-01  -0.3353282559393444E-01  -0.2518239844288673E+00  -0.2396200154474308E-01   0.1835924392228698E+00   0.1420221926128964E+00
   0.1277542466610320E+00   0.2033045221092141E+00   0.2387177993942647E-01   0.2595870129174808E-01  -0.4022837855441531E-01   0.2175184812297619E-01  -0.3619704410443885E-01  -0.2550620749979258E+00  -0.2462353020105019E-01   0.1622292123056595E+00   0.1254943527095871E+00
   0.1106844434229970E+00   0.2044234869476508E+00   0.1063416718551978E-01   0.2638756498031688E-01  -0.4436169687876375E-01   0.1779878409039595E-01  -0.3885467105898375E-01  -0.2582846120697663E+00  -0.2515533335546137E-01   0.1407791466406859E+00   0.1089006426287237E+00
   0.9302644570893354E-01   0.2046838353721387E+00  -0.2615854597285207E-02   0.2673500219538137E-01  -0.4896587866819989E-01   0.1372949392948587E-01  -0.4159621236275863E-01  -0.2614463009225673E+00  -0.2551622719621151E-01   0.1195833291991507E+00   0.9250479332957326E-01
   0.7484545072961149E-01   0.2040979372567873E+00  -0.1572293423174460E-01   0.2699726356123275E-01  -0.5363729559144258E-01   0.9723476028154571E-02  -0.4426835964553444E-01  -0.2644261062268998E+00  -0.2572511732957853E-01   0.9946384704447914E-01   0.7694202898528922E-01
   0.5622018905343822E-01   0.2027047645162339E+00  -0.2855457608525223E-01   0.2717249177189908E-01  -0.5835667541025379E-01   0.5726323124705662E-02  -0.4677886229615674E-01  -0.2672794564451769E+00  -0.2574188911238208E-01   0.8011280746278295E-01   0.6197380020444850E-01
   0.3723403796109609E-01   0.2005649061536337E+00  -0.4099031899278721E-01   0.2725707098143116E-01  -0.6314349792593521E-01   0.1657802662143601E-02  -0.4908550520156078E-01  -0.2700807541465778E+00  -0.2556595257021534E-01   0.6104558822021297E-01   0.4722489492890063E-01
   0.1797448827382290E-01   0.1977569808786300E+00  -0.5292439579163010E-01   0.2724801046898196E-01  -0.6799335161267049E-01  -0.2540087644747371E-02  -0.5117173914937917E-01  -0.2728891447675856E+00  -0.2523464762681949E-01   0.4183443093460038E-01   0.3236409580569970E-01
  -0.1475350421836664E-02   0.1943784737109674E+00  -0.6425475992149972E-01   0.2714153917466366E-01  -0.7327889202046217E-01  -0.6721460353240655E-02  -0.5292596526816795E-01  -0.2754424228299282E+00  -0.2452632379380168E-01   0.2445833298134066E-01   0.1892222735499056E-01
  -0.2103327465256592E-01   0.1905416513017225E+00  -0.7489152888456052E-01   0.2694381583385550E-01  -0.7883665891270533E-01  -0.1027746383393240E-01  -0.5418662584750660E-01  -0.2771643243074184E+00  -0.2341857409274757E-01   0.1303724258213582E-01   0.1008669433805727E-01
  -0.4057567663573573E-01   0.1863396450112082E+00  -0.8482465528521020E-01   0.2668071189173481E-01  -0.8319439147048427E-01  -0.1344690250146827E-01  -0.5473884437525543E-01  -0.2788287280728599E+00  -0.2242025154309771E-01   0.1851998308639904E-02   0.1432911412951265E-02
  -0.5997603991073937E-01   0.1818609084268116E+00  -0.9406021063584781E-01   0.2634969077836208E-01  -0.8779115589764740E-01  -0.1674299169921469E-01  -0.5495519393714546E-01  -0.2804735336496259E+00  -0.2126167024750827E-01  -0.9198418646513993E-02  -0.7117192316271751E-02
  -0.7913664811506062E-01   0.1772092311463461E+00  -0.1025704596086802E+00   0.2595515080324952E-01  -0.9248637193997343E-01  -0.1996431821754027E-01  -0.5462230517699480E-01  -0.2819482552000408E+00  -0.1983545899073238E-01  -0.1899027854728975E-01  -0.1469413493943466E-01
  -0.9795538938245051E-01   0.1724828238941152E+00  -0.1103475561333009E+00   0.2550534077354223E-01  -0.9727430349428341E-01  -0.2298188558733002E-01  -0.5386123473808364E-01  -0.2831270429306154E+00  -0.1829804049373461E-01  -0.2669820513344892E-01  -0.2065912433091935E-01
  -0.1163318015024248E+00   0.1677759168519659E+00  -0.1173934111260723E+00   0.2501153087012382E-01  -0.1022528470713798E+00  -0.2583841182979116E-01  -0.5287142005849487E-01  -0.2840082145526875E+00  -0.1683941219892372E-01  -0.3237822884374823E-01  -0.2505531699074457E-01
  -0.1341708016164420E+00   0.1631805180438145E+00  -0.1237137703187658E+00   0.2448132573059294E-01  -0.1075785017205673E+00  -0.2870382701989481E-01  -0.5146939459250453E-01  -0.2846798160665546E+00  -0.1525111818520140E-01  -0.3655963208862731E-01  -0.2829210666282513E-01
  -0.1513965026979524E+00   0.1588006329692476E+00  -0.1292996653762089E+00   0.2392008453647829E-01  -0.1140737902592615E+00  -0.3099264302202441E-01  -0.4974424254158234E-01  -0.2841257185370385E+00  -0.1337822729009942E-01  -0.3181580332571561E-01  -0.2462200105503584E-01
  -0.1679206603464589E+00   0.1547172183976635E+00  -0.1341690552620080E+00   0.2335668487547937E-01  -0.1203272844410970E+00  -0.3227645845393237E-01  -0.4761721436391444E-01  -0.2825748169673206E+00  -0.1175002163314270E-01  -0.2005003469117392E-01  -0.1551710082851255E-01
  -0.1836322179507684E+00   0.1509728923103558E+00  -0.1383774778632985E+00   0.2281074973751014E-01  -0.1265275801658569E+00  -0.3312819532521035E-01  -0.4522425582800817E-01  -0.2805051931766851E+00  -0.1040818059015751E-01  -0.4778658116568132E-02  -0.3698406445842412E-02
  -0.1984443249231108E+00   0.1476220875636076E+00  -0.1419544193449862E+00   0.2228768003183444E-01  -0.1337025961144615E+00  -0.3371992362247658E-01  -0.4256678956510866E-01  -0.2774811002477557E+00  -0.9054574150965456E-02   0.1710323170500133E-01   0.1323728823012288E-01
  -0.2122912722871263E+00   0.1447297976436097E+00  -0.1449088587005494E+00   0.2179768644747673E-01  -0.1420999829513284E+00  -0.3365154203441357E-01  -0.3990306131538109E-01  -0.2728396824062175E+00  -0.8004062619373200E-02   0.4992750103722773E-01   0.3864305876033070E-01
  -0.2251072228908855E+00   0.1423468232859361E+00  -0.1472559242817517E+00   0.2135493256951905E-01  -0.1516994212165452E+00  -0.3263335887062530E-01  -0.3733894211023199E-01  -0.2661280948007796E+00  -0.7505314399461845E-02   0.9617206685107850E-01   0.7443713732172658E-01
  -0.2368251844547373E+00   0.1405071488656632E+00  -0.1490166118765381E+00   0.2097206831002928E-01  -0.1627714845806525E+00  -0.3103140561918580E-01  -0.3448500877920346E-01  -0.2572804669971352E+00  -0.7270276706860273E-02   0.1552811067269853E+00   0.1201894761720408E+00
  -0.2474037819201156E+00   0.1392606631284271E+00  -0.1501853817464291E+00   0.2064789054587071E-01  -0.1774779312666239E+00  -0.2913379754473150E-01  -0.3131686758170858E-01  -0.2444140668976154E+00  -0.7217140670377525E-02   0.2376095615917137E+00   0.1839149860844788E+00
  -0.2568489763287632E+00   0.1387004800193346E+00  -0.1507047665995319E+00   0.2038075437451286E-01  -0.1982047680940306E+00  -0.2529982863821129E-01  -0.2679735816354721E-01  -0.2221175368226429E+00  -0.6721611739709348E-02   0.3703392603003115E+00   0.2866527479450118E+00
  -0.2652443660301722E+00   0.1389996512850225E+00  -0.1504284305476015E+00   0.2018881319568778E-01  -0.2281899890792957E+00  -0.1919476475244602E-01  -0.2108530588055221E-01  -0.1809509633942800E+00  -0.7319298087859739E-02   0.5818078148148740E+00   0.4503344411062610E+00
  -0.2737771207986432E+00   0.1416679517915940E+00  -0.1478859141533332E+00   0.2004408319071577E-01  -0.2769485566987573E+00   0.2678747918688656E-01  -0.2082887061292452E-01  -0.1451899967151839E-01  -0.2382053032442760E-01   0.9900757216738028E+00   0.7662510096476424E+00
  -0.2791195539220378E+00   0.1481025090960350E+00  -0.1413479597938640E+00   0.2095012945553260E-01  -0.2148718568478168E+00   0.1127015849274744E+00  -0.6183612476088036E-02   0.2918418168764045E+00  -0.1750118649728738E-01  -0.9042968025735029E-01  -0.6996278864927422E-01
  -0.2786799810727981E+00   0.1549994691356857E+00  -0.1338183223197543E+00   0.2245133186155842E-01  -0.1270684232231304E+00   0.1480268696328282E+00   0.5497030307561758E-02   0.3975278790874026E+00   0.2230987932542718E-02  -0.1015531388690446E+01  -0.7858730441592671E+00
  -0.2754760256590969E+00   0.1604214748753854E+00  -0.1272628612006857E+00   0.2383401675032536E-01  -0.8717600782844469E-01   0.1501828580286498E+00   0.1868948252657523E-02   0.4162783737492445E+00   0.1690830577626893E-02  -0.1210154997666110E+01  -0.9364678579049824E+00
  -0.2707659828551946E+00   0.1657917472299739E+00  -0.1201728117974226E+00   0.2533169296594444E-01  -0.6007969132810954E-01   0.1466981558149794E+00  -0.4038683362588038E-04   0.4201811830693006E+00   0.1183847555384700E-02  -0.1251843668194886E+01  -0.9686976633722533E+00
  -0.2646982662927811E+00   0.1711554006999937E+00  -0.1123883805289363E+00   0.2695707412628737E-01  -0.4114704606112203E-01   0.1429621291065821E+00  -0.1257746195575707E-02   0.4199188068960644E+00   0.4347685579180100E-03  -0.1249105448393508E+01  -0.9665407026478717E+00
  -0.2573541361288921E+00   0.1764596971636105E+00  -0.1038462679471882E+00   0.2871575759583343E-01  -0.2646432808754539E-01   0.1395938862353472E+00  -0.1698491007769032E-02   0.4183316088802955E+00  -0.7999959395978186E-04  -0.1232225504120232E+01  -0.9534397419640006E+00
  -0.2487768381680155E+00   0.1816004468604047E+00  -0.9455290920130324E-01   0.3059875342785207E-01  -0.1394121917682917E-01   0.1360577723625767E+00  -0.1600115592075675E-02   0.4156985320441158E+00  -0.4647820880019420E-03  -0.1204303399117427E+01  -0.9317980813343134E+00
  -0.2389996163284452E+00   0.1864596070624476E+00  -0.8455136296601905E-01   0.3258499885549017E-01  -0.2979674517811740E-02   0.1318678442871578E+00  -0.9333633793714728E-03   0.4118370726857232E+00  -0.6221621336803970E-03  -0.1163622755801715E+01  -0.9002896935109875E+00
  -0.2280651472050010E+00   0.1909270665665589E+00  -0.7389405387491388E-01   0.3464561208808371E-01   0.6493340882147802E-02   0.1271532471663828E+00   0.2104658157814167E-04   0.4070574341536370E+00  -0.7436024973530031E-03  -0.1113767134669900E+01  -0.8616875805121685E+00
  -0.2160301470484022E+00   0.1949050059277860E+00  -0.6263432325278052E-01   0.3676006417311716E-01   0.1456536061161015E-01   0.1226382525274478E+00   0.1422136340456434E-02   0.4022281294407092E+00  -0.5770870504563893E-03  -0.1063971474897638E+01  -0.8231364088772866E+00
  -0.2029387543638302E+00   0.1982968141929833E+00  -0.5086874886284430E-01   0.3892047774917259E-01   0.2277785347811148E-01   0.1181893171956489E+00   0.3418550109790911E-02   0.3972114455298463E+00  -0.1456513412487801E-03  -0.1012849278623977E+01  -0.7835683376269746E+00
  -0.1888187463713425E+00   0.2010153991713283E+00  -0.3874341978456122E-01   0.4109893416710599E-01   0.3115161240425045E-01   0.1128894122924001E+00   0.5915057813986168E-02   0.3910683539535968E+00   0.4448793228764165E-03  -0.9510985687252087E+00  -0.7357867655089581E+00
  -0.1737321781722136E+00   0.2030078365412421E+00  -0.2636679252391330E-01   0.4325472631491184E-01   0.3817924184088581E-01   0.1071564834618114E+00   0.8459220032605548E-02   0.3844132022945499E+00   0.1105791515559335E-02  -0.8852902229425318E+00  -0.6848687986293347E+00
  -0.1577597912238372E+00   0.2042443271348609E+00  -0.1383060539940874E-01   0.4537774360751550E-01   0.4484072143991976E-01   0.1017594670198646E+00   0.1140558297831495E-01   0.3779560368608494E+00   0.2055640061412956E-02  -0.8225331605514528E+00  -0.6363164366444869E+00
  -0.1409716457871828E+00   0.2047085716447126E+00  -0.1255692734968490E-02   0.4745741898770266E-01   0.5122480276872741E-01   0.9674899776357676E-01   0.1459009914061862E-01   0.3717546669680250E+00   0.3157528693722853E-02  -0.7632886112189464E+00  -0.5904856029993546E+00
  -0.1234387467380419E+00   0.2044058640193479E+00   0.1123086729013329E-01   0.4948867715226556E-01   0.5755707735202196E-01   0.9216093792795471E-01   0.1808624637782369E-01   0.3658125725303970E+00   0.4467088440157797E-02  -0.7074864764908564E+00  -0.5473216495315444E+00
  -0.1052345221703023E+00   0.2033636072046099E+00   0.2350233682323177E-01   0.5146585662108688E-01   0.6380996320598320E-01   0.8801897381632048E-01   0.2162838172162619E-01   0.3601615475038480E+00   0.5771179413374873E-02  -0.6552921189965493E+00  -0.5069512838582717E+00
  -0.8644306135114857E-01   0.2016283612994881E+00   0.3545024039680371E-01   0.5338861497701448E-01   0.6979580596515093E-01   0.8484543160252252E-01   0.2535302198932142E-01   0.3553813888479255E+00   0.7320189634469633E-02  -0.6118817885608857E+00  -0.4733775628729782E+00
  -0.6712291449487935E-01   0.1992766108391587E+00   0.4692727962161997E-01   0.5527813497927740E-01   0.7710119266586571E-01   0.8220229505325845E-01   0.2924667601502925E-01   0.3505644531064469E+00   0.8603964807309088E-02  -0.5687088946899803E+00  -0.4399919057215845E+00
  -0.4733744829037781E-01   0.1964052993289614E+00   0.5780258846005851E-01   0.5711709657297742E-01   0.8414412080941298E-01   0.7943437382652814E-01   0.3277101378065347E-01   0.3454794008903178E+00   0.9714182769826949E-02  -0.5237610464191603E+00  -0.4052318909235328E+00
  -0.2719457198967394E-01   0.1931088454755088E+00   0.6802983282120260E-01   0.5889991112306195E-01   0.9074412370300659E-01   0.7708268016066111E-01   0.3604441193424697E-01   0.3407657832739466E+00   0.1091602934148575E-01  -0.4827592073012572E+00  -0.3735227611895968E+00
  -0.6801569265018460E-02   0.1894857792147413E+00   0.7757122560433050E-01   0.6063529253020448E-01   0.9734515365361324E-01   0.7532988514318539E-01   0.3885261667832075E-01   0.3364716191418852E+00   0.1189528925285155E-01  -0.4458910184538288E+00  -0.3450104455959660E+00
   0.1373917360003211E-01   0.1856390598581489E+00   0.8639117230830878E-01   0.6232712173575303E-01   0.1039131485439377E+00   0.7401912171569455E-01   0.4118868111340796E-01   0.3324622689411180E+00   0.1272610004691718E-01  -0.4118853712894395E+00  -0.3187111660362007E+00
   0.3432072114476292E-01   0.1816686756234696E+00   0.9447177835694825E-01   0.6397773655906470E-01   0.1104482830416491E+00   0.7309254625832506E-01   0.4301228086394941E-01   0.3286899845780463E+00   0.1342888995791106E-01  -0.3802531891363112E+00  -0.2942463683873593E+00
   0.5483555727396397E-01   0.1776711734572680E+00   0.1018059977692281E+00   0.6558874671981402E-01   0.1170543058586767E+00   0.7229720441482895E-01   0.4416661522309768E-01   0.3248581857227861E+00   0.1386193948786838E-01  -0.3484104050491842E+00  -0.2696164814179908E+00
   0.7516701207037119E-01   0.1737291041473626E+00   0.1084091885301831E+00   0.6715135718025766E-01   0.1233278389740909E+00   0.7157237782615812E-01   0.4469446612942116E-01   0.3211184363819577E+00   0.1424797716754391E-01  -0.3176901100302208E+00  -0.2458525872421003E+00
   0.9519551200839479E-01   0.1699135773734656E+00   0.1143083724680670E+00   0.6866425479592560E-01   0.1295962325383310E+00   0.7100699310597350E-01   0.4461271681164035E-01   0.3174021263138690E+00   0.1449779116466563E-01  -0.2874745428410601E+00  -0.2224770874509575E+00
   0.1148160002068121E+00   0.1662991562274076E+00   0.1195163255284569E+00   0.7012317279413281E-01   0.1361768373521366E+00   0.7023086357072812E-01   0.4414043849369242E-01   0.3131445591724750E+00   0.1474668067192047E-01  -0.2532901165193491E+00  -0.1960280296296351E+00
   0.1339170714785031E+00   0.1629436245249294E+00   0.1240610564186259E+00   0.7151224602369062E-01   0.1424571965158488E+00   0.6909193890757589E-01   0.4311879184525014E-01   0.3085362879654985E+00   0.1501634587802500E-01  -0.2168235081380371E+00  -0.1678102684904337E+00
   0.1523914121439595E+00   0.1598977037612667E+00   0.1279707528422659E+00   0.7282220178778066E-01   0.1492007901986286E+00   0.6681348336117428E-01   0.4173744951461836E-01   0.3023040199073331E+00   0.1522807827177711E-01  -0.1683282054144565E+00  -0.1302807466619953E+00
   0.1701132208867703E+00   0.1571784708288788E+00   0.1313021278903450E+00   0.7401173864878821E-01   0.1546687211773099E+00   0.6288351867715107E-01   0.3971567211606843E-01   0.2950734922140607E+00   0.1550101807799640E-01  -0.1133332504034996E+00  -0.8771809070401622E-01
   0.1869347315268280E+00   0.1547641995430032E+00   0.1341438250951157E+00   0.7505712626517111E-01   0.1593684151739641E+00   0.5776412896361033E-01   0.3736686831923013E-01   0.2870338728407211E+00   0.1593693201414221E-01  -0.5381490574558483E-01  -0.4165249976043593E-01
   0.2027282029871071E+00   0.1526393670734029E+00   0.1365601950879005E+00   0.7594437329168045E-01   0.1634141082734684E+00   0.5148166432668379E-01   0.3471127451790698E-01   0.2781637563687931E+00   0.1643156612701730E-01   0.9920772796380498E-02   0.7678726439069507E-02
   0.2173736132273976E+00   0.1507832505719089E+00   0.1386094697385041E+00   0.7666256336604589E-01   0.1666709614477530E+00   0.4402593659702139E-01   0.3211341229216829E-01   0.2685774111623839E+00   0.1723975282098020E-01   0.7641513178047922E-01   0.5914621983295784E-01
   0.2307621292153410E+00   0.1491750509751381E+00   0.1403407306517253E+00   0.7720952822428764E-01   0.1694028238229255E+00   0.3520050004873669E-01   0.2966009182960491E-01   0.2579048225000415E+00   0.1826664341128926E-01   0.1476043599072754E+00   0.1142483188422463E+00
   0.2427980563993555E+00   0.1477969942484063E+00   0.1417926897794377E+00   0.7758393983143019E-01   0.1715498171147655E+00   0.2475707028292646E-01   0.2744112988454161E-01   0.2459628379184697E+00   0.1947789513643204E-01   0.2237512990591889E+00   0.1731882497650493E+00
   0.2534019982054509E+00   0.1466389115761137E+00   0.1429911089134105E+00   0.7779369791176624E-01   0.1736984473134038E+00   0.1149736012297176E-01   0.2577469743479436E-01   0.2311145128808464E+00   0.2106201845222400E-01   0.3132612076697652E+00   0.2424717730207927E+00
   0.2624902531597472E+00   0.1456737411103383E+00   0.1439749033151720E+00   0.7783606636459227E-01   0.1739796842228561E+00  -0.5754520796536047E-02   0.2487544202954764E-01   0.2136838337300969E+00   0.2311028331272582E-01   0.4109693853574748E+00   0.3181010188977178E+00
   0.2699849456578158E+00   0.1448697647980478E+00   0.1447842966482647E+00   0.7772764427520469E-01   0.1734365719963363E+00  -0.2860379364027195E-01   0.2548942814780075E-01   0.1912704104382026E+00   0.2616566392989373E-01   0.5247837134305381E+00   0.4061969477874111E+00
   0.2758421817303587E+00   0.1442248025405914E+00   0.1454271157110944E+00   0.7749180508688758E-01   0.1725056508939313E+00  -0.5096931984121426E-01   0.2650024401697283E-01   0.1696225968604934E+00   0.2904434674489356E-01   0.6223752175986960E+00   0.4817360453656559E+00
   0.2769623987679413E+00   0.1523561869529156E+00   0.1519417262654175E+00   0.1654397166978516E-01  -0.6656176638382463E-02   0.1114058851835767E+00  -0.4303896538527445E-01  -0.1762223770826882E+00  -0.4304623421058071E-01   0.6024454967261862E+00   0.4921677356852927E+00
   0.2730067464312901E+00   0.1553315049030668E+00   0.1488900088766278E+00   0.1714645954575402E-01  -0.6168387614006120E-02   0.9581194855970002E-01  -0.4115330938381665E-01  -0.1918226917747609E+00  -0.4110921988317826E-01   0.5350355772576154E+00   0.4370835657347354E+00
   0.2679550668527630E+00   0.1590442709791551E+00   0.1449062336650005E+00   0.1778419088750266E-01  -0.6405513525101564E-02   0.8057688314553141E-01  -0.3884521518125555E-01  -0.2070469666109765E+00  -0.3873012724209428E-01   0.4639451371200338E+00   0.3789933385901234E+00
   0.2618148779790614E+00   0.1633910238191415E+00   0.1399735854052481E+00   0.1845162862458716E-01  -0.7967781796014348E-02   0.6978166320208953E-01  -0.3715265220096838E-01  -0.2177966883276842E+00  -0.3690051775636168E-01   0.4104134629392325E+00   0.3352488641449456E+00
   0.2545783534628237E+00   0.1682319590383269E+00   0.1341022422744864E+00   0.1913046729852806E-01  -0.1144828097760169E-01   0.6125882008535351E-01  -0.3636869679481201E-01  -0.2261949340434677E+00  -0.3581585317765237E-01   0.3662847862126131E+00   0.2991882340952158E+00
   0.2462457719164903E+00   0.1734202969993168E+00   0.1273058619599368E+00   0.1981605925933228E-01  -0.1497820803645797E-01   0.5469943149661224E-01  -0.3632986578604318E-01  -0.2325837911719784E+00  -0.3532424702086496E-01   0.3312587819083563E+00   0.2705651936043771E+00
   0.2368420142341609E+00   0.1788211773776620E+00   0.1195834124466499E+00   0.2050401977603096E-01  -0.1821503403327389E-01   0.4924087621250225E-01  -0.3686948140671529E-01  -0.2378453176124253E+00  -0.3526886507442570E-01   0.3013618208461086E+00   0.2461335652828490E+00
   0.2263935844263597E+00   0.1842905852873433E+00   0.1109508649206911E+00   0.2118483891686561E-01  -0.2182988780813399E-01   0.4457177286690413E-01  -0.3786379190502428E-01  -0.2422493941022679E+00  -0.3545245614051560E-01   0.2756186338784123E+00   0.2250970029588302E+00
   0.2149272650136271E+00   0.1896783858691113E+00   0.1014459383340464E+00   0.2185650223869422E-01  -0.2553508354129961E-01   0.4080137844924782E-01  -0.3916862438651287E-01  -0.2456963922232109E+00  -0.3573620688883453E-01   0.2550130319860606E+00   0.2082585318171073E+00
   0.2024864080028746E+00   0.1948456933482152E+00   0.9110693331374731E-01   0.2252037977694888E-01  -0.2883713415387099E-01   0.3779453679507835E-01  -0.4062980336707541E-01  -0.2483668635294305E+00  -0.3604545133742330E-01   0.2387641389889626E+00   0.1949796622352488E+00
   0.1891313392659242E+00   0.1996652207436103E+00   0.7997099777027671E-01   0.2317770039828505E-01  -0.3160160074588805E-01   0.3522231901755307E-01  -0.4211316445781147E-01  -0.2506184400398280E+00  -0.3631779889491887E-01   0.2249121906010822E+00   0.1836595398582125E+00
   0.1749436306209597E+00   0.2040215675926461E+00   0.6806542021252422E-01   0.2382393607841426E-01  -0.3325238074858895E-01   0.3212977206378582E-01  -0.4358070612455709E-01  -0.2534932471395250E+00  -0.3671793273140576E-01   0.2070059932780850E+00   0.1690297530865507E+00
   0.1599778412082729E+00   0.2077895237240928E+00   0.5548200773720673E-01   0.2442575379258951E-01  -0.3622397235501882E-01   0.2826165194820564E-01  -0.4538061043056463E-01  -0.2569563240341951E+00  -0.3708028112361145E-01   0.1852870547357861E+00   0.1512898409084590E+00
   0.1442576287370532E+00   0.2108461708061708E+00   0.4238492934868936E-01   0.2496854989556128E-01  -0.3991692478687935E-01   0.2429954988662182E-01  -0.4745983901297582E-01  -0.2603656668526631E+00  -0.3743140019656516E-01   0.1636300954392819E+00   0.1336031164246696E+00
   0.1278273393527219E+00   0.2131062485064646E+00   0.2892881641934244E-01   0.2544504905851762E-01  -0.4390611546902170E-01   0.2047420273132286E-01  -0.4969957762298722E-01  -0.2635262014680803E+00  -0.3774971895598851E-01   0.1433112247371923E+00   0.1170108275043811E+00
   0.1107483630236018E+00   0.2145169519572881E+00   0.1525807170104711E-01   0.2585276540041558E-01  -0.4793636661782944E-01   0.1661172799297883E-01  -0.5202290122372311E-01  -0.2666420602903369E+00  -0.3804600174805380E-01   0.1230625945969949E+00   0.1004772211442938E+00
   0.9308185289090209E-01   0.2150535443645127E+00   0.1529305795327133E-02   0.2617931733518275E-01  -0.5245699638909745E-01   0.1264452962056549E-01  -0.5440089108556388E-01  -0.2696861419778363E+00  -0.3816367347212318E-01   0.1032191998476594E+00   0.8427567046159218E-01
   0.7489235924008897E-01   0.2147199009181620E+00  -0.1209983192196657E-01   0.2642193519116609E-01  -0.5705773540597741E-01   0.8776105944149567E-02  -0.5667656953367653E-01  -0.2725179822062812E+00  -0.3810996790478678E-01   0.8471570042652231E-01   0.6916863150097870E-01
   0.5625834036669663E-01   0.2135472383426332E+00  -0.2549288814523230E-01   0.2657961587682955E-01  -0.6171380596302705E-01   0.4942896965262649E-02  -0.5878161729925441E-01  -0.2752033145099808E+00  -0.3786648376828413E-01   0.6717442484933103E-01   0.5484738088291582E-01
   0.3726300393208610E-01   0.2115892563805736E+00  -0.3852420993256260E-01   0.2664928984404621E-01  -0.6644320436070333E-01   0.1061007474292476E-02  -0.6066898796096695E-01  -0.2778202578146695E+00  -0.3742474689004158E-01   0.5010346014010040E-01   0.4090997357958926E-01
   0.1799364685199087E-01   0.2089188729237582E+00  -0.5108162195839100E-01   0.2662858269435645E-01  -0.7124114780710908E-01  -0.2933857696205889E-02  -0.6224302211563339E-01  -0.2804339062989039E+00  -0.3673859972458739E-01   0.3310872924522583E-01   0.2703435813342167E-01
  -0.1466921411177674E-02   0.2056288720892281E+00  -0.6305613884533169E-01   0.2651388800193157E-01  -0.7647692395562414E-01  -0.6895321845467667E-02  -0.6347416238166408E-01  -0.2827819456522004E+00  -0.3567512101654707E-01   0.1808900597141131E-01   0.1477077836857053E-01
  -0.2103677657330406E-01   0.2018281144105311E+00  -0.7435058624719680E-01   0.2631202348918659E-01  -0.8198363836888292E-01  -0.1016835413492831E-01  -0.6412300417194740E-01  -0.2842433083521977E+00  -0.3412590325109612E-01   0.9419925928774126E-02   0.7692250616606984E-02
  -0.4059171323358660E-01   0.1976099380152386E+00  -0.8494622476057399E-01   0.2605139815669566E-01  -0.8627499561244546E-01  -0.1305647408851056E-01  -0.6416368298685519E-01  -0.2856568291386785E+00  -0.3274957193311237E-01   0.8317058524949586E-03   0.6791898481823569E-03
  -0.6000457783477134E-01   0.1930647442597540E+00  -0.9484069217917131E-01   0.2572694074817746E-01  -0.9079987020159458E-01  -0.1609570855398247E-01  -0.6378720577239977E-01  -0.2870809816258741E+00  -0.3112616124109325E-01  -0.7734053434020822E-02  -0.6316047854226438E-02
  -0.7917767248976819E-01   0.1882982619707505E+00  -0.1039991933502223E+00   0.2534400908543678E-01  -0.9541527841786616E-01  -0.1905578474080603E-01  -0.6293454614306825E-01  -0.2883363886640462E+00  -0.2929565815431247E-01  -0.1508700445166989E-01  -0.1232136044700372E-01
  -0.9800883359843057E-01   0.1834121752876297E+00  -0.1124072617643208E+00   0.2490972445300114E-01  -0.1001151477962454E+00  -0.2187235097795190E-01  -0.6163649996699450E-01  -0.2893614033454843E+00  -0.2732019629672981E-01  -0.2085013218472878E-01  -0.1702872151115107E-01
  -0.1163974362723722E+00   0.1785051233366348E+00  -0.1200611744939020E+00   0.2443354373972946E-01  -0.1049901108345855E+00  -0.2452706603398217E-01  -0.6000658617351073E-01  -0.2900967295596940E+00  -0.2530469528402616E-01  -0.2467602378123192E-01  -0.2015421890778592E-01