TITLE="Rotor Forces"
VARIABLES="T" "CFIP" "CMIP" "CFDP" "CMDP" "CFVP" "CMVP"
ZONE T="BLADE" F=POINT, I=   1
  0     0.2574333727848622E+00   0.3797176032345315E-01   0.2542599633983528E+00   0.4075046685604769E-01   0.2542599633983528E+00   0.4075046685604769E-01
