TITLE="Rotor Forces"
VARIABLES="T" "CFIP" "CMIP" "CFDP" "CMDP" "CFVP" "CMVP"
ZONE T="BLADE" F=POINT, I=   1
  0     0.3004857583645372E+00   0.4219935026245209E-01   0.2975129019054283E+00   0.4499582677853602E-01   0.2975129019054283E+00   0.4499582677853602E-01
