TITLE="Rotor Forces"
VARIABLES="T" "CFIP" "CMIP" "CFDP" "CMDP" "CFVP" "CMVP"
ZONE T="BLADE" F=POINT, I=   1
  0     0.2138213124828146E+00   0.3306427978539224E-01   0.2104416980445880E+00   0.3582402244425210E-01   0.2104416980445880E+00   0.3582402244425210E-01
