TITLE="Rotor Forces"
VARIABLES="T" "CFIP" "CMIP" "CFDP" "CMDP" "CFVP" "CMVP"
ZONE T="BLADE" F=POINT, I=   1
  0     0.1249864541475754E+00   0.2122319056432820E-01   0.1211876624604459E+00   0.2392872039428372E-01   0.1211876624604459E+00   0.2392872039428372E-01
