TITLE="Rotor Forces"
VARIABLES="T" "CFIP" "CMIP" "CFDP" "CMDP" "CFVP" "CMVP"
ZONE T="BLADE" F=POINT, I=   1
  0     0.7979282423671008E-01   0.1429537790905683E-01   0.7580073776749272E-01   0.1694424595006930E-01   0.7580073776749272E-01   0.1694424595006930E-01
