TITLE="Rotor Forces"
VARIABLES="T" "CFIP" "CMIP" "CFDP" "CMDP" "CFVP" "CMVP"
ZONE T="BLADE" F=POINT, I=   1
  0     0.1549759426265327E+00   0.2548903974521492E-01   0.1513167999765269E+00   0.2821725840404007E-01   0.1513167999765269E+00   0.2821725840404007E-01
